ITEM: TIMESTEP
180000
ITEM: NUMBER OF ATOMS
80000
ITEM: BOX BOUNDS pp pp pp
-105.657 510.657
-56.8914 461.891
-1.13783 9.23783
ITEM: ATOMS id type xs ys zs c_peratom 
6747 1 0.00679608 0.00825328 0.174622 -1.61716 
12 1 0.00318181 0.00389478 0.20404 -1.76148 
6756 1 0.0283667 0.000604115 0.828917 -1.80494 
73724 1 0.00238298 0.00282856 0.495937 -1.81532 
6645 1 0.010792 0.00764732 0.329158 -1.72314 
353 1 0.0516596 0.0615694 0.201967 -1.80844 
6508 1 0.0127592 0.00557306 0.0232672 -1.85053 
6496 1 0.00106181 0.0179958 0.573345 -1.8124 
6509 1 0.0203735 0.00317743 0.383778 -1.79589 
6719 1 0.016159 0.0069841 0.427518 -1.85401 
6651 1 0.0168886 0.001635 0.00570001 -1.78763 
6605 1 0.0270507 0.00391034 0.286352 -1.78714 
237 1 0.0296668 0.00883536 0.313908 -1.76886 
16 1 0.03093 0.00565262 0.0133124 -1.88496 
6573 1 0.0339842 0.000918194 0.292969 -1.74096 
28 1 0.0404511 0.00519199 0.0665429 -1.76535 
6759 1 0.0357945 0.00694214 0.169184 -1.76894 
6697 1 0.0404613 0.00512629 0.590891 -1.80785 
24 1 0.0422703 0.0108901 0.12759 -1.79376 
6596 1 0.0454847 0.00624487 0.220564 -1.82581 
6810 1 0.0461614 0.0130255 0.319676 -1.79411 
13267 1 0.0504938 0.00835919 0.170769 -1.71207 
6555 1 0.0572276 0.00263745 0.0912365 -1.81881 
6391 1 0.0515451 0.002948 0.185211 -1.69405 
6791 1 0.0568285 0.00424653 0.402443 -1.84653 
135 1 0.0621715 0.00619447 0.142354 -1.82094 
13365 1 0.0664286 0.00297585 0.0875437 -1.85148 
6763 1 0.0649232 0.0035855 0.504571 -1.79848 
13500 1 0.0830695 0.0022406 0.0790168 -1.84816 
6754 1 0.0695026 0.00267329 0.403094 -1.79973 
7096 1 0.0723958 0.00809258 0.403998 -1.84702 
74415 1 0.00686374 0.0621002 0.545096 -1.71112 
6728 1 0.0652705 0.00895333 0.354371 -1.88077 
13539 1 0.0750411 0.00444345 0.572832 -1.82177 
6723 1 0.0731365 0.00409691 0.150351 -1.82901 
13370 1 0.0749326 0.00957619 0.0862717 -1.67298 
13577 1 0.0799488 0.00127255 0.336692 -1.75427 
13438 1 0.0792808 0.00688258 0.884807 -1.70968 
6875 1 0.0782673 0.00908739 0.359718 -1.8352 
6576 1 0.0054127 0.01502 0.459344 -1.78966 
6514 1 0.00534268 0.013975 0.0852446 -1.80903 
73868 1 0.00164831 0.0168776 0.273212 -1.70619 
332 1 0.0144713 0.018447 0.426921 -1.67557 
38 1 0.00981748 0.0151806 0.299448 -1.8467 
73790 1 0.0147672 0.0110133 0.17436 -1.75762 
17 1 0.0110475 0.0211389 0.0906236 -1.82708 
293 1 0.01963 0.0124303 0.364851 -1.81208 
73664 1 0.0212445 0.0186451 0.409107 -1.72883 
6737 1 0.0244376 0.00992392 0.273706 -1.78694 
13499 1 0.0297436 0.0143768 0.129774 -1.79632 
102 1 0.0252934 0.0154953 0.349609 -1.70249 
6591 1 0.02638 0.00944416 0.577571 -1.85341 
6803 1 0.0296755 0.0200202 0.0246746 -1.75207 
6551 1 0.0312357 0.0182912 0.395666 -1.74322 
6741 1 0.0366884 0.0163933 0.208384 -1.77042 
6806 1 0.0374888 0.0223261 0.334308 -1.79906 
54 1 0.0335055 0.0120583 0.416987 -1.77555 
6494 1 0.0416435 0.0117142 0.480313 -1.70344 
6906 1 0.0413691 0.0173913 0.19814 -1.69216 
86 1 0.0449948 0.0183524 0.454475 -1.92871 
6449 1 0.0456572 0.0207752 0.119318 -1.82558 
6716 1 0.0538204 0.0123065 0.307345 -1.72748 
6626 1 0.0507291 0.018824 0.516554 -1.88987 
7063 1 0.0535971 0.0203785 0.201967 -1.77722 
350 1 0.0484882 0.0156021 0.0921448 -1.75022 
6528 1 0.0499027 0.0238252 -0.00170536 -1.67193 
6799 1 0.0595269 0.01109 0.308808 -1.77853 
6388 1 0.0580753 0.0166345 0.400303 -1.80759 
6524 1 0.0664828 0.0150969 0.220553 -1.80288 
6456 1 0.0640876 0.0207172 0.367007 -1.77042 
6846 1 0.0634778 0.0144769 0.5063 -1.78479 
13374 1 0.0693865 0.0209806 0.410114 -1.77352 
6815 1 0.0703001 0.0110679 0.136355 -1.84634 
6517 1 0.0757448 0.0153301 0.0691002 -1.6353 
13336 1 0.0745576 0.0142414 0.330566 -1.68186 
6937 1 0.0802242 0.0189019 1.00241 -1.83479 
6479 1 0.0832434 0.0136732 0.165268 -1.72605 
6903 1 0.078503 0.0177349 0.371724 -1.83636 
13278 1 0.0819074 0.0141882 0.525164 -1.83406 
295 1 0.00780827 0.0219505 0.317682 -1.77965 
73840 1 0.00769049 0.0278119 0.235414 -1.74976 
73791 1 0.000893913 0.0299086 0.231665 -1.80148 
225 1 0.000100722 0.0245077 0.0597826 -1.73272 
36 1 0.00203735 0.0239356 0.317703 -1.7922 
126 1 0.0123549 0.0259262 0.326097 -1.87923 
114 1 0.00772692 0.0260398 0.568508 -1.82808 
238 1 0.0128527 0.0310447 0.137571 -1.78456 
73658 1 0.0247423 0.0225287 0.221233 -1.82211 
44 1 0.0239946 0.0279481 0.347433 -1.79382 
304 1 0.0183118 0.0263537 0.516411 -1.74472 
70 1 0.017486 0.0276044 0.222741 -1.83754 
330 1 0.0166238 0.0217139 0.215104 -1.70554 
242 1 0.0249276 0.0225036 0.569536 -1.85918 
48 1 0.0287048 0.0268228 0.435262 -1.79424 
241 1 0.028676 0.0256957 0.0834392 -1.77839 
305 1 0.0332063 0.0234813 0.209334 -1.84286 
13567 1 0.0383678 0.025845 0.0483358 -1.92743 
97 1 0.0374403 0.029143 0.367995 -1.8133 
333 1 0.0360278 0.0320758 0.0071601 -1.74221 
131 1 0.0481284 0.0244816 0.376029 -1.89932 
6459 1 0.0420256 0.0244828 0.309761 -1.85166 
6574 1 0.0464859 0.028995 0.118294 -1.85564 
6873 1 0.0448651 0.0269169 0.595479 -1.7342 
7025 1 0.05583 0.0224864 0.488372 -1.69696 
6595 1 0.0530758 0.0259304 0.221736 -1.81064 
328 1 0.0587504 0.0241423 0.273442 -1.77218 
321 1 0.0576664 0.0304013 0.351169 -1.85376 
285 1 0.0662028 0.0217834 0.00427504 -1.72749 
336 1 0.0636375 0.0275767 0.250289 -1.81649 
6590 1 0.0597441 0.0290979 0.0519024 -1.84855 
6952 1 0.0691875 0.0261283 0.241729 -1.82654 
13302 1 0.0717751 0.0191029 0.129956 -1.86586 
252 1 0.0733327 0.029864 0.377765 -1.81573 
352 1 0.0757857 0.0238033 0.268802 -1.86175 
7026 1 0.0819409 0.0254651 0.431167 -1.69444 
7167 1 0.0783109 0.0291865 0.50402 -1.81647 
6840 1 0.0806341 0.0243075 0.104975 -1.80665 
289 1 0.000645733 0.034871 0.0420037 -1.76348 
6520 1 0.0614782 -0.000146355 0.279455 -1.86306 
74382 1 0.0050341 0.0398965 0.434424 -1.77701 
74223 1 0.00318068 0.0328471 0.466284 -1.79846 
341 1 0.0128143 0.0315009 0.485943 -1.82802 
310 1 0.00685032 0.0336662 0.248284 -1.79074 
290 1 0.0142105 0.0364525 0.132122 -1.77933 
326 1 0.00893429 0.0386411 0.0509457 -1.7204 
73953 1 0.0191733 0.0342449 0.120088 -1.64619 
390 1 0.0219907 0.0357226 0.342001 -1.74563 
88 1 0.0147133 0.0382766 0.527964 -1.8072 
280 1 0.0324457 0.0300164 0.204757 -1.84025 
337 1 0.0276173 0.0348849 0.323603 -1.69375 
302 1 0.0271937 0.0424287 0.315254 -1.80805 
308 1 0.0319442 0.0377348 0.364176 -1.72248 
245 1 0.0321953 0.0428756 0.083585 -1.8585 
380 1 0.0318821 0.0360363 0.0830095 -1.76995 
93 1 0.039922 0.0347515 0.389957 -1.71677 
95 1 0.0374027 0.038212 0.946911 -1.73429 
660 1 0.0372574 0.0396914 0.387707 -1.71884 
265 1 0.0446116 0.0376008 0.35229 -1.64384 
61 1 0.0474496 0.0319571 0.370519 -1.81418 
124 1 0.0484846 0.0408072 0.0158884 -1.80687 
315 1 0.0455547 0.0353619 0.102009 -1.74241 
134 1 0.0521919 0.0320911 0.28755 -1.78978 
219 1 0.0573836 0.0416744 0.301861 -1.74934 
6554 1 0.0522161 0.0385239 0.205582 -1.94618 
161 1 0.057204 0.0358295 0.436298 -1.77587 
7162 1 0.050159 0.0328794 0.0103881 -1.82837 
6879 1 0.0619847 0.0350259 0.19764 -1.93015 
165 1 0.0679876 0.0323786 0.271465 -1.86502 
372 1 0.0614637 0.0386114 0.523045 -1.78565 
348 1 0.0668025 0.0380882 0.267601 -1.84795 
64 1 0.0628584 0.0418383 0.205545 -1.89491 
7057 1 0.0724151 0.0369161 0.176572 -1.90779 
7103 1 0.0712194 0.0321654 0.00909915 -1.7489 
100 1 0.0715974 0.0351077 0.479875 -1.80518 
7129 1 0.0765253 0.0365971 0.388619 -1.89184 
166 1 0.0782994 0.0320093 0.174269 -1.82563 
246 1 0.0831385 0.0326816 0.415546 -1.78025 
249 1 0.0816788 0.0385103 0.381675 -1.87555 
358 1 0.0039579 0.050612 0.26215 -1.75012 
74048 1 0.00210318 0.0483065 0.601695 -1.75736 
107 1 0.00783971 0.0516831 0.0787027 -1.69604 
431 1 0.00198825 0.0448342 0.307021 -1.8685 
74085 1 0.00820726 0.0447991 0.308133 -1.72733 
376 1 0.00712357 0.0496864 0.543981 -1.71862 
9 1 0.0122968 0.0421395 0.299724 -1.70221 
74220 1 0.0120511 0.0490753 0.119191 -1.73077 
269 1 0.0175658 0.0405976 0.25074 -1.78184 
361 1 0.0215858 0.0516272 0.333978 -1.76139 
279 1 0.0210435 0.0464803 0.0918067 -1.78959 
162 1 0.017039 0.0489889 0.267832 -1.66736 
327 1 0.0298579 0.0476182 0.304589 -1.81529 
365 1 0.0260118 0.0532184 0.229733 -1.75365 
702 1 0.0313576 0.0475718 0.887735 -1.81861 
448 1 0.0348357 0.0464326 0.325033 -1.87963 
247 1 0.0386087 0.0442068 0.104435 -1.80904 
665 1 0.0410876 0.049068 0.306422 -1.92294 
201 1 0.0370817 0.0503917 0.0346973 -1.87979 
192 1 0.0368629 0.0526127 0.395819 -1.91168 
69 1 0.0419351 0.0510113 0.974388 -1.78771 
151 1 0.050865 0.0494765 0.245713 -1.79512 
140 1 0.0451267 0.0458851 0.218921 -1.886 
58 1 0.0485296 0.0497972 0.501426 -1.81388 
156 1 0.0490641 0.0429186 0.389957 -1.87776 
148 1 0.0557569 0.0499795 0.115498 -1.81226 
282 1 0.0548348 0.0462393 0.35642 -1.73624 
6567 1 0.059317 0.0457236 -0.00813403 -1.85967 
6575 1 0.0534493 0.0441174 0.972386 -1.93188 
342 1 0.0601613 0.0460093 0.465902 -1.87359 
128 1 0.0659754 0.0453484 0.369524 -1.8463 
243 1 0.0656988 0.0519522 0.469327 -1.85031 
164 1 0.0707888 0.041193 0.40498 -1.8159 
96 1 0.0712109 0.048413 0.242919 -1.92302 
441 1 0.0743872 0.0546301 0.586961 -1.88756 
85 1 0.0663912 0.0496729 0.174456 -1.75314 
101 1 0.0736774 0.0448334 0.0197359 -1.87555 
6877 1 0.0768304 0.0487147 0.33852 -1.7804 
57 1 0.0798462 0.0451154 0.464939 -1.73669 
6580 1 0.0748499 0.0430911 0.301713 -1.73313 
7453 1 0.0804904 0.0440991 0.139261 -1.71792 
74151 1 0.00470079 0.0599461 0.183583 -1.74081 
74190 1 0.00122785 0.0554414 0.230584 -1.71778 
340 1 0.00997366 0.0566064 0.2268 -1.84901 
7464 1 0.0726974 0.0617709 0.993335 -1.81854 
145 1 0.0143344 0.0536406 0.277951 -1.58979 
464 1 0.0143219 0.0567504 0.00532647 -1.7105 
74087 1 0.0149781 0.058835 0.51551 -1.82127 
74303 1 0.0212164 0.0600544 0.941268 -1.85126 
74221 1 0.0191302 0.0531068 0.990393 -1.85434 
715 1 0.0233755 0.0590024 0.230778 -1.79233 
74090 1 0.0173787 0.0578742 0.214197 -1.69451 
122 1 0.0290205 0.0563326 0.0464021 -1.83133 
572 1 0.0280953 0.0607543 0.261624 -1.8316 
366 1 0.0307772 0.0549683 0.387901 -1.8406 
186 1 0.0341977 0.0571322 0.199951 -1.8535 
138 1 0.0403064 0.0561533 0.154467 -1.90319 
175 1 0.0413421 0.0545563 0.572038 -1.81838 
73758 1 0.0363301 0.0612738 0.973698 -1.79463 
513 1 0.039411 0.0605021 0.402433 -1.75883 
497 1 0.0332864 0.0598405 0.506138 -1.85445 
384 1 0.0466099 0.0518833 0.0886783 -1.84487 
111 1 0.0450988 0.0587748 0.203161 -1.90998 
121 1 0.0452739 0.0540264 0.406844 -1.83323 
13444 1 0.0816738 0.00571794 0.619333 -1.83913 
379 1 0.0590047 0.0520461 0.466068 -1.91895 
389 1 0.0502518 0.0561301 0.326953 -1.91648 
360 1 0.0543025 0.0601926 0.467791 -1.78502 
345 1 0.0567794 0.0567822 0.221926 -1.91494 
385 1 0.0611783 0.0512471 0.145826 -1.9416 
89 1 0.0610067 0.0592979 0.455563 -1.70091 
217 1 0.0661892 0.0596263 0.500971 -1.85585 
73696 1 0.0641586 0.0572554 0.23462 -1.90335 
391 1 0.0699374 0.0540001 0.397981 -1.78393 
110 1 0.0693793 0.0612364 0.248345 -1.89292 
7309 1 0.0741256 0.0551406 0.209283 -1.80309 
6878 1 0.0807706 0.0493065 0.0509719 -1.61062 
7159 1 0.0785006 0.055648 0.36149 -1.76021 
6941 1 0.082127 0.0561053 0.147112 -1.70529 
7091 1 0.0746744 0.0616917 0.397162 -1.85158 
320 1 0.0758024 0.050619 0.0273247 -1.86636 
91 1 0.0784588 0.0603554 0.137502 -1.84583 
13169 1 0.0772812 0.00176318 1.00468 -1.82799 
6399 1 0.00677871 0.0017714 0.800488 -1.8633 
229 1 0.00287374 0.00845122 0.856401 -1.71997 
273 1 0.00373987 0.00972798 0.573728 -1.71271 
414 1 0.0672572 0.0595364 0.90855 -1.87947 
6686 1 0.00899363 0.000653303 0.0970499 -1.87667 
6624 1 0.0139304 0.0129474 0.477799 -1.74493 
73872 1 0.0128496 0.00569398 0.651752 -1.84571 
19 1 0.00739708 0.0056511 0.50733 -1.79095 
260 1 0.018145 0.00320479 0.651851 -1.85137 
7061 1 0.0825116 0.0525507 0.810739 -1.7298 
6441 1 0.0158451 0.00986164 0.815138 -1.78966 
286 1 0.018976 0.00770844 0.115808 -1.80944 
67 1 0.0239619 0.00571965 0.952049 -1.69073 
6782 1 0.0235176 0.00378734 0.679587 -1.76312 
21 1 0.0296684 0.00402032 0.569376 -1.84377 
31 1 0.0272062 0.00993851 0.913681 -1.84392 
6571 1 0.0329878 0.0120204 0.940356 -1.76929 
6796 1 0.0333989 0.00253468 0.784788 -1.75998 
6513 1 0.0354052 0.00505564 0.498096 -1.81698 
7023 1 0.0364206 0.00662459 0.875515 -1.80078 
6510 1 0.0309149 0.0104783 0.68268 -1.77485 
230 1 0.0377521 0.0104718 0.606822 -1.69068 
250 1 0.0475975 0.00291374 0.00549043 -1.7684 
7062 1 0.0431039 0.00131347 0.866264 -1.86157 
6570 1 0.0416608 0.00850672 0.821771 -1.8288 
7059 1 0.0456368 0.00811893 0.561928 -1.57208 
6789 1 0.047306 0.0041119 0.697968 -1.62355 
13270 1 0.0510319 0.00607971 0.515879 -1.81602 
7029 1 0.0525149 0.00991416 0.860006 -1.82398 
13572 1 0.0555131 0.00921195 0.62154 -1.82949 
13331 1 0.0546613 0.0148982 0.0517167 -1.71727 
13368 1 0.0635718 0.0116303 0.0188865 -1.8054 
6730 1 0.0582793 0.00870082 0.911769 -1.81932 
13483 1 0.0605066 0.00771913 0.612588 -1.82856 
6808 1 0.0572829 0.00223806 0.766289 -1.80909 
13540 1 0.0644132 0.00639134 0.833992 -1.75083 
13231 1 0.0696703 0.00258623 0.74686 -1.8831 
6691 1 0.0687711 0.00719008 0.923872 -1.46409 
13477 1 0.0736387 0.00688322 0.83103 -1.79645 
13437 1 0.0685624 0.00872545 0.649023 -1.81244 
697 1 0.0783883 0.0559488 0.805854 -1.81149 
6797 1 0.0784001 0.0107878 0.68677 -1.7645 
6876 1 0.0692574 0.0558686 0.699037 -1.86597 
6907 1 0.0734907 0.0565447 0.868188 -1.70885 
79903 1 0.00485782 0.0141187 0.77005 -1.86324 
6504 1 0.0096886 0.0110524 0.656172 -1.90204 
262 1 0.00796576 0.00798679 0.901581 -1.73782 
6801 1 0.00949328 0.0184897 0.584007 -1.80593 
6581 1 0.0153658 0.014975 0.952848 -1.59492 
307 1 0.0196149 0.0159137 0.740545 -1.71108 
6534 1 0.0100499 0.0165129 0.851945 -1.75952 
79807 1 0.0209537 0.00907785 0.626818 -1.87855 
266 1 0.0249285 0.0154222 0.731649 -1.83849 
73899 1 0.0226267 0.017902 0.027072 -1.80798 
6548 1 0.021824 0.011796 0.917351 -1.7955 
71 1 0.0255048 0.0226667 0.900165 -1.82113 
41 1 0.0184492 0.0215986 0.721356 -1.70246 
6414 1 0.0304882 0.016093 0.790953 -1.65745 
171 1 0.034942 0.0196562 0.945664 -1.87851 
6740 1 0.0387619 0.0130729 0.928866 -1.90042 
255 1 0.0409428 0.0196925 0.942766 -1.79676 
6744 1 0.0349756 0.0158873 0.704908 -1.77405 
13274 1 0.0397151 0.0178547 0.525303 -1.83957 
80 1 0.0473493 0.0106436 0.80608 -1.77969 
318 1 0.0436975 0.0150925 0.749412 -1.90892 
6562 1 0.0494051 0.0161284 0.791673 -1.79152 
6550 1 0.0504941 0.0118798 0.538338 -1.85121 
6487 1 0.0547752 0.0156962 0.690403 -1.89428 
6594 1 0.0531397 0.0215798 0.84976 -1.76092 
7060 1 0.0614683 0.0175471 0.935303 -1.7598 
6577 1 0.0593218 0.0133489 0.727495 -1.78606 
254 1 0.0584759 0.0202432 0.692865 -1.77727 
6794 1 0.0647534 0.0186555 0.689148 -1.74914 
6849 1 0.0683367 0.015768 0.857441 -1.78869 
7124 1 0.0694719 0.0136037 0.452627 -1.85134 
13446 1 0.0757252 0.0214852 0.875026 -1.83116 
6839 1 0.0732533 0.0186865 0.534022 -1.78825 
6811 1 0.0736406 0.0133291 0.797216 -1.85694 
6765 1 0.0692366 0.0218787 0.746083 -1.7949 
68 1 0.0808317 0.0216245 0.673348 -1.80932 
6561 1 0.0779216 0.0171145 0.71548 -1.7496 
6544 1 0.00121915 0.0267017 0.613924 -1.87237 
240 1 0.00398242 0.0260018 0.856808 -1.78319 
8 1 0.00533834 0.0206337 0.725728 -1.83117 
73931 1 0.00526763 0.0210253 0.0594802 -1.869 
312 1 0.080823 0.0586798 0.575004 -1.71905 
43 1 0.00942955 0.0238701 0.812614 -1.6856 
47 1 0.0114979 0.029202 0.820235 -1.80998 
6485 1 0.0153996 0.0240899 0.937039 -1.79376 
14 1 0.0138764 0.0237187 0.653518 -1.77284 
268 1 0.0169835 0.0308419 0.933796 -1.71232 
6582 1 0.0188975 0.0321275 0.528289 -1.73872 
73903 1 0.0204815 0.0239185 0.0329123 -1.85382 
6681 1 0.0220501 0.0273839 0.755439 -1.90588 
267 1 0.0230462 0.0303589 0.051809 -1.83901 
662 1 0.0331295 0.0267881 0.89385 -1.96283 
11 1 0.0305775 0.0222183 0.614812 -1.79807 
270 1 0.0283577 0.0280932 0.73396 -1.85298 
6784 1 0.0340305 0.0268195 0.573447 -1.73576 
94 1 0.0369576 0.0229618 0.723717 -1.77929 
6757 1 0.0382413 0.0287663 0.664683 -1.72676 
323 1 0.0406763 0.0305669 0.157557 -1.74577 
248 1 0.041405 0.0231014 0.589402 -1.59971 
6780 1 0.0475014 0.0215373 0.717776 -1.88377 
6881 1 0.0490292 0.0284993 0.780884 -1.83005 
287 1 0.0429228 0.0271342 0.908155 -1.88341 
62 1 0.0516982 0.0265499 0.5627 -1.80474 
13579 1 0.0577848 0.0235476 0.971446 -1.81468 
13371 1 0.0540484 0.0280033 0.936448 -1.89612 
6753 1 0.0628371 0.0265902 0.58276 -1.77977 
7130 1 0.0579254 0.0289212 0.701384 -1.82207 
253 1 0.0626365 0.0233768 0.857218 -1.62715 
6766 1 0.0652143 0.028937 0.986332 -1.7879 
251 1 0.068212 0.0267932 0.597432 -1.80635 
13295 1 0.0753873 0.0273194 0.0266429 -1.8076 
283 1 0.0702387 0.0266588 0.962745 -1.69771 
13299 1 0.0733827 0.0318685 0.719077 -1.86772 
6943 1 0.0778992 0.0263541 0.766288 -1.54992 
7095 1 0.0737805 0.0253879 0.556161 -1.82403 
74384 1 0.00386087 0.0395387 0.0974759 -1.914 
73870 1 0.0030759 0.032003 0.783862 -1.77813 
235 1 0.00964928 0.0377512 0.426469 -1.77812 
263 1 0.00801189 0.0319398 0.63734 -1.81239 
6536 1 0.00708663 0.0339333 0.936503 -1.71474 
83 1 0.0126633 0.0360986 0.82118 -1.89503 
76 1 0.0183665 0.0402723 0.877094 -1.79484 
6795 1 0.00772995 0.0396916 0.777162 -1.78019 
65 1 0.0228491 0.0400985 0.0325478 -1.86712 
53 1 0.0203722 0.0341355 0.823264 -1.74277 
647 1 0.0231767 0.0389245 0.664274 -1.76286 
291 1 0.0245584 0.0316369 0.605196 -1.81657 
7058 1 0.0268058 0.0333537 0.901836 -1.76238 
301 1 0.0323852 0.0326332 0.769065 -1.85797 
149 1 0.0284336 0.0394061 0.593898 -1.739 
18 1 0.0331431 0.0390999 0.712878 -1.8664 
6783 1 0.0400409 0.0324505 0.857968 -1.68843 
109 1 0.0354361 0.0346287 0.544251 -1.7973 
306 1 0.0397909 0.039372 0.715394 -1.78167 
6790 1 0.0425433 0.0409924 0.100225 -1.76472 
275 1 0.0434525 0.032742 0.593292 -1.81284 
26 1 0.0463684 0.0410947 0.760908 -1.74454 
409 1 0.0468477 0.0347847 0.804185 -1.80387 
98 1 0.0485602 0.0375752 0.516669 -1.80548 
6552 1 0.0557918 0.0330209 0.0859902 -1.83275 
231 1 0.0579539 0.0391129 0.0285256 -1.86222 
388 1 0.0537396 0.0324066 0.60124 -1.84775 
45 1 0.0527031 0.0382294 0.838326 -1.90973 
20 1 0.0538033 0.0402477 0.548357 -1.82787 
143 1 0.0626863 0.0383652 0.922299 -1.84459 
368 1 0.0636777 0.0328847 0.484284 -1.84329 
82 1 0.0588003 0.0352156 0.766899 -1.85611 
127 1 0.0661377 0.0397045 0.608541 -1.84026 
7200 1 0.0663585 0.0333616 0.773437 -1.70225 
7027 1 0.0711717 0.0432367 0.756179 -1.87061 
129 1 0.0689091 0.0375182 0.907885 -1.78532 
239 1 0.0740334 0.0376324 0.847732 -1.88241 
92 1 0.0785619 0.0351756 0.66393 -1.91669 
7164 1 0.0786288 0.0382453 0.0805001 -1.73008 
6553 1 0.079884 0.0305342 0.889148 -1.64288 
7024 1 0.0816344 0.0403845 0.676851 -1.87124 
74337 1 0.00295882 0.0436193 0.7843 -1.7247 
667 1 0.00232856 0.0487024 0.945948 -1.65617 
5 1 0.0119927 0.0440878 0.628451 -1.78641 
467 1 0.0101997 0.049906 0.788587 -1.75162 
311 1 0.00751375 0.0455208 0.988803 -1.8901 
430 1 0.0130046 0.042454 0.916453 -1.82718 
74256 1 0.017235 0.0504287 0.564815 -1.7658 
52 1 0.0168946 0.0476901 0.829183 -1.78208 
40 1 0.0220611 0.0421947 0.348642 -1.76933 
163 1 0.0166761 0.0442279 0.488334 -1.77246 
364 1 0.0217472 0.0439665 0.761187 -1.64954 
73968 1 0.0217362 0.0509389 0.718488 -1.86349 
132 1 0.028775 0.0398548 0.902342 -1.79138 
206 1 0.0258926 0.0454939 0.619527 -1.7981 
213 1 0.02594 0.0463174 0.0888059 -1.75274 
73726 1 0.0310229 0.0444332 0.581328 -1.83314 
6779 1 0.0420056 0.0452027 0.846651 -1.94379 
73749 1 0.0330594 0.0505471 0.601234 -1.87826 
277 1 0.038564 0.0443309 0.542968 -1.81717 
298 1 0.0361831 0.044981 0.817316 -1.88549 
701 1 0.038199 0.0501007 0.723587 -1.86591 
79 1 0.0439582 0.0429438 0.498672 -1.86155 
99 1 0.0485798 0.0466861 0.946309 -1.81714 
271 1 0.043075 0.0486382 0.607183 -1.81703 
244 1 0.0522496 0.0504713 0.847326 -1.902 
314 1 0.0507554 0.0434295 0.708198 -1.72021 
6541 1 0.0568522 0.0476651 0.684028 -1.84001 
7196 1 0.065812 0.0457456 0.67888 -1.8427 
346 1 0.0640727 0.0461749 0.970391 -1.76398 
276 1 0.0592941 0.0420574 0.731751 -1.89045 
33 1 0.0655256 0.0530379 0.922591 -1.91204 
236 1 0.0615588 0.0497287 0.736437 -1.86316 
204 1 0.0753685 0.0419602 0.594631 -1.88286 
711 1 0.0684157 0.0432472 0.0921306 -1.96666 
435 1 0.0705141 0.0494942 0.862592 -1.98307 
322 1 0.0702041 0.0479858 0.54009 -1.90365 
422 1 0.0829198 0.046784 0.813757 -1.76481 
7253 1 0.0802283 0.0505971 0.537188 -1.73421 
7127 1 0.0781894 0.0422414 0.893601 -1.69528 
7503 1 0.075905 0.048688 0.723269 -1.93554 
74282 1 0.00103517 0.0539476 0.557776 -1.75937 
463 1 0.00583393 0.0567576 0.596708 -1.7399 
74154 1 0.000408825 0.0582561 0.762448 -1.74908 
74224 1 0.00400456 0.0538568 0.868243 -1.78686 
146 1 0.00983398 0.0571187 0.856303 -1.77825 
211 1 0.0113077 0.0615524 0.713609 -1.78805 
653 1 0.0117537 0.053672 0.567422 -1.79015 
72 1 0.0246819 0.0563391 0.788317 -1.78263 
316 1 0.0698911 0.0546562 0.0593965 -1.82413 
331 1 0.0170922 0.0559688 0.755201 -1.78203 
116 1 0.0211431 0.0572541 0.567681 -1.84696 
6422 1 0.0788558 0.000531771 0.664554 -1.8544 
535 1 0.0305688 0.0553413 0.736698 -1.83425 
585 1 0.0269021 0.0504275 0.856101 -1.83481 
474 1 0.0259821 0.0530134 0.553661 -1.82505 
46 1 0.0320653 0.0516756 0.109047 -1.81699 
404 1 0.0380717 0.0603903 0.678601 -1.7677 
119 1 0.0362899 0.0555414 0.843525 -1.84572 
13332 1 0.052453 0.000382596 0.855306 -1.863 
481 1 0.0464829 0.0514702 0.774924 -1.84099 
77 1 0.0438333 0.0597768 0.571478 -1.78918 
136 1 0.0429737 0.0562645 0.866835 -1.89253 
370 1 0.0483333 0.0568797 0.645542 -1.88829 
73792 1 0.0539732 0.0538027 0.526877 -1.85132 
227 1 0.0145592 0.000826269 0.379605 -1.86621 
456 1 0.0485025 0.0566082 0.944312 -1.79612 
7451 1 0.0575396 0.0524512 0.871072 -1.83298 
177 1 0.053769 0.0567769 0.960007 -1.82492 
6781 1 0.0574819 0.0575148 0.638143 -1.73677 
81 1 0.0610016 0.0575977 0.970198 -1.84871 
15 1 0.0627264 0.0556034 0.664039 -1.86943 
6547 1 0.0527685 0.000282591 0.499995 -1.79305 
74157 1 0.00896516 0.0623913 0.065972 -1.70444 
648 1 0.0283923 0.060811 0.723874 -1.80484 
221 1 0.0515727 0.0621915 0.734196 -1.73305 
6905 1 0.0830782 0.0363487 0.936133 -1.85984 
7465 1 0.0576495 0.0617913 0.0328172 -1.78833 
770 1 0.0480883 0.0619729 0.457452 -1.83264 
74031 1 0.00564683 0.0616577 0.844902 -1.84639 
688 1 0.0765559 0.0621829 0.735531 -1.91376 
292 1 0.00220017 0.000749281 0.959704 -1.88936 
60 1 0.0480139 0.000198184 0.386106 -1.86306 
6499 1 0.0118158 6.22959e-05 0.736644 -1.75218 
74346 1 0.00563348 0.0658946 0.194575 -1.77643 
382 1 0.0712812 0.0628298 0.611087 -1.82778 
74117 1 0.00405927 0.0683563 0.45965 -1.76557 
7396 1 0.0830342 0.111695 0.52856 -1.83298 
496 1 0.0111278 0.0684108 0.194461 -1.85403 
743 1 0.00995587 0.0677042 0.571811 -1.86508 
74062 1 0.0170908 0.0688716 0.0787282 -1.88768 
742 1 0.0163438 0.0655071 0.453089 -1.87977 
74095 1 0.0195683 0.0633224 0.191433 -1.758 
736 1 0.0222502 0.0681891 0.221 -1.85011 
861 1 0.0539389 0.122677 0.0946919 -1.73651 
651 1 0.0278682 0.0670779 0.210905 -1.77457 
150 1 0.0319244 0.069841 0.327625 -1.84775 
338 1 0.0259572 0.0733907 0.152314 -1.78519 
512 1 0.0288519 0.066382 0.508393 -1.7544 
106 1 0.0343215 0.0641634 0.255488 -1.862 
649 1 0.0374902 0.0703398 0.341993 -1.89519 
194 1 0.0413649 0.064307 0.213725 -1.77826 
432 1 0.0432201 0.0656398 0.512393 -1.85582 
699 1 0.0489185 0.0683245 0.279115 -1.82913 
216 1 0.0433907 0.0705974 0.0831437 -1.8711 
534 1 0.0468895 0.064394 0.0507134 -1.81043 
679 1 0.0537068 0.0670972 0.089986 -1.82317 
433 1 0.0544498 0.0689414 0.475392 -1.85764 
556 1 0.0621676 0.123923 0.760939 -1.74897 
197 1 0.0591689 0.0697238 0.328868 -1.77091 
7923 1 0.0813629 0.122389 0.601777 -1.64959 
168 1 0.064699 0.0702837 0.171612 -1.88652 
214 1 0.0625939 0.0629956 0.0615273 -1.84404 
718 1 0.0638947 0.0653914 0.377506 -1.87699 
274 1 0.0585066 0.0643024 0.408734 -1.73754 
313 1 0.0710483 0.0738149 0.155918 -1.83256 
7198 1 0.0691299 0.0697824 0.343568 -1.85067 
6835 1 0.0732012 0.066256 0.214652 -1.84293 
281 1 0.0782135 0.066556 0.0716063 -1.77774 
6904 1 0.0766006 0.071886 0.338734 -1.86592 
329 1 0.0792677 0.0733101 0.0660585 -1.71976 
172 1 0.00458456 0.0775732 0.3451 -1.75764 
208 1 0.00275947 0.0828988 0.184916 -1.65282 
714 1 0.00959744 0.0792651 0.172563 -1.84867 
74246 1 0.00707497 0.0733406 0.0497881 -1.80512 
396 1 0.00988073 0.0738251 0.338447 -1.8378 
570 1 0.0148472 0.0761497 0.171407 -1.87602 
176 1 0.013675 0.0818921 0.371542 -1.89829 
470 1 0.0183405 0.0713861 0.378902 -1.83659 
74091 1 0.0168695 0.0772934 0.437228 -1.82695 
812 1 0.0191129 0.0812788 0.115479 -1.76546 
210 1 0.0222695 0.0771671 0.33751 -1.89206 
655 1 0.0196613 0.0830742 0.503154 -1.76303 
407 1 0.0195886 0.0748861 0.0744428 -1.9456 
367 1 0.0266147 0.0807699 0.453248 -1.8123 
551 1 0.0343753 0.0745469 0.186027 -1.78195 
374 1 0.0315611 0.0766565 0.418398 -1.73589 
781 1 0.0337158 0.0817009 0.32206 -1.82445 
511 1 0.0296905 0.0771251 0.985891 -1.86469 
411 1 0.0382355 0.0840038 0.39774 -1.86053 
196 1 0.0362821 0.0760565 0.466254 -1.78248 
84 1 0.0426168 0.0818635 0.156591 -1.82493 
400 1 0.0376253 0.0811458 0.0662817 -1.93997 
212 1 0.0410284 0.075739 0.214009 -1.88721 
7005 1 0.0496282 0.0762952 0.36841 -1.80872 
668 1 0.0464115 0.0763087 0.145553 -1.8659 
185 1 0.051369 0.0773382 1.01162 -1.84203 
324 1 0.0523692 0.0724366 0.22055 -1.80067 
160 1 0.0503442 0.0836258 0.129613 -1.77147 
405 1 0.0539539 0.0788931 0.249724 -1.76806 
455 1 0.059313 0.0778004 0.479836 -1.75626 
516 1 0.0617027 0.0766731 0.0913669 -1.80179 
181 1 0.0594108 0.081448 0.234928 -1.90477 
542 1 0.0661117 0.0800143 0.107007 -1.80101 
546 1 0.0575019 0.0749703 0.218414 -1.74774 
125 1 0.0668274 0.0747861 0.96111 -1.89287 
485 1 0.0749175 0.0781161 0.298105 -1.87115 
410 1 0.0649744 0.0755674 0.356883 -1.91401 
167 1 0.0742178 0.0841579 0.403098 -1.88679 
158 1 0.0804624 0.0781895 0.367719 -1.85951 
183 1 0.00124046 0.0634381 0.441728 -1.76879 
74284 1 0.00731726 0.0868008 0.160502 -1.82315 
74375 1 0.00127838 0.0940497 0.172476 -1.80557 
7414 1 0.0692985 0.122206 0.769695 -1.82252 
393 1 0.0065832 0.084005 0.492912 -1.79587 
74191 1 0.00674662 0.0901766 0.440649 -1.84365 
835 1 0.011946 0.0888796 0.248696 -1.84276 
974 1 0.0122301 0.0935585 0.888225 -1.55632 
113 1 0.0136187 0.0845046 0.0597599 -1.79271 
74315 1 0.0172268 0.0865192 0.257779 -1.81448 
603 1 0.0206732 0.0923763 0.392664 -1.86675 
502 1 0.0217196 0.0861091 0.107581 -1.67612 
74126 1 0.0155821 0.0936691 0.176499 -1.85699 
713 1 0.0287536 0.0831427 0.214616 -1.6903 
708 1 0.0310887 0.0913641 0.106449 -1.79881 
465 1 0.0253145 0.0906266 0.205686 -1.73257 
737 1 0.0303085 0.093437 0.412021 -1.91724 
709 1 0.0328701 0.087352 0.495012 -1.90004 
347 1 0.0403045 0.0880103 0.196905 -1.8671 
559 1 0.0350317 0.0927314 0.274377 -1.78382 
786 1 0.0354532 0.0874581 0.075699 -1.83982 
356 1 0.0452167 0.0841064 0.392588 -1.82191 
397 1 0.04665 0.0906034 0.353882 -1.89368 
412 1 0.0514641 0.0889452 0.458753 -1.76375 
155 1 0.0502114 0.0966345 0.20997 -1.95885 
712 1 0.0550793 0.092974 0.328369 -1.75345 
721 1 0.0547167 0.0846351 0.346505 -1.82329 
378 1 0.0524552 0.0891569 0.168577 -1.78313 
686 1 0.0555149 0.0925623 0.940416 -1.87983 
539 1 0.0567567 0.085708 0.969863 -1.89435 
503 1 0.058422 0.0900334 0.16983 -1.80765 
1083 1 0.0630012 0.0867075 0.255868 -1.7975 
475 1 0.0681784 0.0914453 0.232335 -1.80932 
756 1 0.0687686 0.0847996 0.195078 -1.78054 
544 1 0.0730322 0.0895332 0.237707 -1.62385 
459 1 0.0698118 0.0895206 0.532218 -1.85627 
195 1 0.0778208 0.0884588 0.49998 -1.80094 
189 1 0.0819991 0.0784162 0.0744479 -1.76366 
7363 1 0.0833511 0.0882891 0.420375 -1.85217 
832 1 0.0784808 0.0899178 0.183013 -1.89105 
1157 1 0.0113518 0.0622455 0.394388 -1.84848 
810 1 0.00859149 0.0942069 0.19027 -1.90021 
675 1 0.00778433 0.105224 0.948179 -1.80329 
74445 1 0.0066133 0.10226 0.207347 -1.75163 
398 1 0.0426203 0.0634965 0.848191 -1.90142 
74381 1 0.0108284 0.0937517 0.543632 -1.88422 
1123 1 0.0114916 0.0992722 0.112641 -1.90483 
505 1 0.0162101 0.102223 0.334689 -1.79582 
677 1 0.0256813 0.103219 0.161374 -1.87497 
399 1 0.0151656 0.0969188 0.422766 -1.75159 
744 1 0.0163368 0.0988034 -0.00282007 -1.87062 
740 1 0.0199002 0.0981351 0.282276 -1.79458 
74150 1 0.0286811 0.101044 0.51601 -1.82887 
74187 1 0.0304417 0.0984556 0.242914 -1.78056 
74348 1 0.0249878 0.0978596 0.314273 -1.86338 
74147 1 0.0358193 0.0988052 0.178357 -1.84243 
767 1 0.039831 0.101281 0.40117 -1.90434 
500 1 0.0395316 0.0946504 0.169973 -1.853 
406 1 0.0416115 0.0995819 0.0175936 -1.90051 
738 1 0.0476599 0.0961326 0.484906 -1.78402 
962 1 0.0478765 0.102404 0.135746 -1.87231 
540 1 0.0445082 0.0989624 0.284723 -1.77061 
785 1 0.041754 0.0945319 0.490852 -1.89497 
682 1 0.051282 0.101622 0.419461 -1.79921 
639 1 0.0567326 0.0978028 0.100641 -1.86563 
745 1 0.0608655 0.100948 0.26226 -1.87271 
558 1 0.0605174 0.0948809 0.392874 -1.72146 
819 1 0.063875 0.100619 -0.0081677 -1.83992 
510 1 0.0650474 0.0958923 0.205061 -1.74372 
1114 1 0.058308 0.103505 0.0289491 -1.67836 
7226 1 0.0654647 0.102144 0.379732 -1.86179 
796 1 0.0734843 0.0945388 0.460433 -1.80777 
74286 1 0.0695365 0.0985136 0.134453 -1.78203 
484 1 0.0713872 0.1005 0.454249 -1.8507 
476 1 0.073448 0.101932 0.145928 -1.7786 
683 1 0.074585 0.0942642 0.165184 -1.59214 
728 1 0.0794262 0.0966262 0.286241 -1.87813 
7498 1 0.077783 0.103611 0.308294 -1.77531 
419 1 0.0794016 0.101327 0.0209655 -1.88914 
851 1 0.0157457 0.122209 0.403319 -1.81992 
941 1 0.0050848 0.110905 0.0749989 -1.81469 
1196 1 0.00886536 0.11425 0.229008 -1.61685 
220 1 0.0597811 0.0636428 0.713844 -1.83418 
74448 1 0.00188129 0.105417 0.189088 -1.75363 
1074 1 0.0116241 0.106396 0.258864 -1.85681 
938 1 0.0155969 0.110944 0.443625 -1.86575 
74208 1 0.0112417 0.110443 0.025828 -1.89662 
801 1 0.0166174 0.107344 0.134666 -1.83291 
74160 1 0.0210612 0.106705 0.31789 -1.86917 
1105 1 0.0206588 0.109048 -0.0102535 -1.7662 
74313 1 0.0248923 0.11069 0.276929 -1.87321 
880 1 0.0209207 0.103112 0.967192 -1.8651 
483 1 0.0246308 0.107835 0.560726 -1.81079 
1077 1 0.0209867 0.113211 0.479517 -1.83199 
633 1 0.0291541 0.106993 0.386479 -1.93104 
576 1 0.03336 0.101313 0.449533 -1.7395 
906 1 0.028184 0.110468 0.0221098 -1.87541 